ITEM: TIMESTEP
0
ITEM: NUMBER OF ATOMS
62500
ITEM: BOX BOUNDS pp pp pp
-5.2529854340047777e+00 9.7752985433206206e+01
-5.2529854340047777e+00 9.7752985433206206e+01
-5.2529854340047777e+00 1.6775298543320599e+02
ITEM: ATOMS id type x y z c_pe_atom c_ke_atom
9121 4 -0.876114 27.232 4.40645 -3.54192 0
8793 2 -4.70852 13.8071 9.36563 -6.51641 0
22402 2 -3.06589 9.8173 13.967 -6.5547 0
25271 2 -0.240139 5.44832 1.7484 -6.20696 0
40927 2 3.9182 14.5004 8.70095 -6.48328 0
936 3 4.52558 -4.5673 6.50448 -4.9861 0
31186 2 9.22042 15.5119 8.35013 -6.49524 0
31857 2 12.8584 27.7718 2.17723 -6.11002 0
46697 2 18.0163 24.3355 14.3806 -6.6432 0
45565 4 13.086 -3.4488 0.0453581 -3.54576 0
1414 2 14.9006 -4.50349 1.74661 -6.52551 0
20463 2 21.3124 4.95361 15.936 -6.47696 0
48784 1 15.1173 -4.87452 18.208 -4.85713 0
20631 2 -4.4249 0.800117 13.6905 -6.44487 0
6337 4 0.805301 27.3285 10.561 -3.47861 0
6545 4 5.01967 -1.4786 1.78118 -3.4889 0
23806 4 3.13172 -1.79353 10.6318 -3.45838 0
28744 2 8.43962 12.5338 -2.42855 -6.37005 0
52521 4 0.256975 25.2748 -1.94424 -3.53259 0
20586 2 15.2789 12.7427 18.3068 -6.65056 0
20979 2 2.9669 19.0022 5.17361 -6.4387 0
30194 4 4.39693 2.1257 6.1581 -3.50572 0
32915 2 3.55558 -2.03575 -2.59537 -6.57628 0
61404 4 -3.89146 -0.696414 1.73276 -3.58044 0
6550 2 22.2846 15.365 1.23479 -6.6071 0
40684 1 -2.18752 13.9661 -1.21636 -4.79924 0
11465 1 -0.611352 7.0771 -3.74527 -4.40575 0
1155 4 17.4649 18.5274 19.0498 -3.45321 0
25235 1 2.84289 -0.36978 8.59454 -4.97723 0
60722 2 27.9511 14.7314 5.65266 -6.49016 0
24378 4 7.19752 18.8738 -4.55031 -3.02101 0
13973 2 21.8091 24.9649 4.57748 -6.77386 0
27896 2 2.28458 17.0622 15.7883 -6.3719 0
8218 4 3.25068 11.7957 15.55 -3.55098 0
4683 4 3.83759 27.0034 4.09496 -3.36525 0
14561 4 1.08316 -1.85712 18.3534 -3.50737 0
50423 4 -3.0541 24.6247 1.6783 -3.53526 0
46746 4 17.6625 4.66244 -1.44928 -3.4729 0
53173 4 21.8229 7.23477 -4.18214 -2.98244 0
17354 2 -1.37848 -2.20505 -3.78978 -5.28489 0
35158 3 9.95906 10.1865 5.62569 -5.0228 0
6654 1 1.00802 -0.701448 -2.58635 -4.91796 0
42048 2 10.297 1.16692 0.265137 -6.60776 0
51709 4 3.15114 0.790235 -1.75919 -3.55615 0
5477 2 28.4717 -1.52539 0.815399 -6.74547 0
33027 2 16.3822 11.3158 1.07574 -6.49384 0
34148 4 15.668 -3.81984 13.8702 -3.45792 0
47466 2 1.69646 2.92017 19.0921 -6.26061 0
43976 2 -2.49664 -3.85792 4.31801 -6.13127 0
30964 4 20.7069 28.1034 16.3025 -3.58529 0
29130 2 7.85054 16.9542 11.0511 -6.38454 0
41838 4 7.95576 10.6208 7.27123 -3.40209 0
22780 1 -4.8336 -3.18463 2.71227 -5.08063 0
23732 2 19.1152 12.263 2.24248 -6.69793 0
20676 2 19.6825 4.28175 10.602 -6.46691 0
3866 2 6.80028 26.9699 -4.31651 -4.51109 0
12989 2 -3.25346 -1.18482 4.51893 -6.25314 0
27761 4 17.0407 2.60983 16.8574 -3.42904 0
58025 4 6.50905 7.36604 2.1863 -3.54891 0
50174 4 28.8305 5.29487 5.26273 -3.50201 0
62367 4 8.34118 10.0827 14.3143 -3.43626 0
18656 4 23.3289 3.50747 17.3497 -3.54943 0
61274 2 14.9871 10.2714 4.97803 -6.47151 0
796 4 8.5465 8.72485 -5.21272 -2.71503 0
26847 2 22.6593 2.05567 8.05948 -6.64203 0
11697 4 14.3662 -1.9282 3.23654 -3.34288 0
12048 2 -1.47441 -0.553254 17.0999 -6.33113 0
56036 4 2.52098 3.2244 -0.773507 -3.43789 0
22663 2 -1.80004 23.0036 13.075 -6.53197 0
11128 4 18.6516 11.3369 -0.953613 -3.41809 0
11152 2 10.4245 3.49839 2.48055 -6.59838 0
42886 2 26.6897 19.0729 7.91626 -6.06353 0
30165 1 -1.25453 25.7937 13.7984 -5.13702 0
13805 4 3.72046 9.04428 11.6522 -3.45608 0
27531 3 15.5609 19.291 9.37546 -5.02996 0
29092 2 15.2199 5.28779 3.8624 -6.63716 0
56991 2 22.9169 1.29316 12.9961 -6.60841 0
22204 4 1.73513 16.7493 1.15925 -3.42853 0
40412 4 -3.5113 23.3439 5.93918 -3.56075 0
21440 4 13.2917 8.24074 -2.48121 -3.42003 0
24931 4 -0.229815 18.0131 5.63513 -3.4639 0
29213 4 26.1231 -2.23037 -3.27974 -3.29617 0
58132 2 19.4533 -2.17917 14.5823 -6.62631 0
45303 2 10.0493 11.4408 16.0025 -6.67238 0
45925 2 2.54348 21.2548 19.0971 -6.69703 0
11182 4 2.84567 1.98406 16.5547 -3.45551 0
50543 4 -0.8379 -2.1379 14.6826 -3.50163 0
4393 4 0.145248 1.28101 11.8665 -3.56407 0
26091 2 3.00208 0.923241 11.4083 -6.56025 0
54878 4 26.3587 12.6497 9.71076 -3.37237 0
57861 4 -3.43167 16.0714 0.455035 -3.46694 0
14789 4 28.5915 3.46556 0.624911 -3.51492 0
34096 2 7.3802 27.9855 11.5143 -6.77786 0
30732 2 14.6817 22.0442 -0.1518 -6.46439 0
10538 2 29.0686 20.2373 3.20273 -6.63872 0
50317 4 1.18167 -4.00029 0.554752 -3.47082 0
42132 1 0.0756459 20.5648 -5.06995 -3.21026 0
12031 2 1.13692 2.18105 -3.11519 -5.76483 0
31437 2 21.3942 20.0415 3.49177 -6.48147 0
61906 1 0.87567 -1.79558 2.1145 -4.84678 0
49107 2 22.3886 -0.947355 16.2175 -6.6738 0
18693 2 9.38426 -4.45067 7.26725 -6.59529 0
9119 2 16.355 23.4668 -2.64331 -6.1632 0
54792 4 14.7568 3.22921 8.73449 -3.52649 0
50826 2 0.545809 10.1039 -0.118512 -6.39036 0
47581 4 21.6565 8.27382 0.410219 -3.5299 0
30188 4 26.0204 28.8036 20.0192 -3.51283 0
23344 2 20.9641 4.14495 5.88574 -6.69659 0
45187 4 0.807177 12.3257 3.68826 -3.44291 0
25421 1 14.5737 0.51279 8.40392 -5.07468 0
49674 1 25.8486 -2.34363 -0.498409 -5.0898 0
3397 2 20.4743 1.26457 20.4045 -6.57738 0
26308 4 -3.44966 2.0068 -1.55464 -3.26662 0
37006 4 21.9831 18.0076 1.72603 -3.53684 0
50534 2 10.1027 -4.36027 18.7187 -6.68779 0
29560 4 4.55375 7.4448 17.5874 -3.47544 0
31582 2 21.2655 -1.4867 -4.17282 -3.95064 0
54789 2 25.0291 14.5969 17.8691 -6.74522 0
41669 2 2.13583 16.7487 12.6263 -6.33865 0
20949 3 21.6949 19.5818 -5.22733 -2.88917 0
33895 2 5.69196 23.0092 -1.66511 -6.26057 0
60261 2 21.4719 15.3764 13.7895 -6.53403 0
19426 4 25.6187 25.4325 7.64993 -3.47664 0
42757 4 -3.42076 15.4376 -3.59347 -3.39497 0
9560 4 3.30699 27.2015 11.01 -3.44261 0
2423 4 2.55349 -1.59215 0.141145 -3.40962 0
20001 4 8.72184 -4.59186 -5.0028 -2.60055 0
19401 4 18.5882 24.422 19.7301 -3.45183 0
6409 1 9.17396 10.8221 18.6551 -5.06767 0
4773 2 19.6896 -0.16809 8.18012 -6.69946 0
41047 4 23.7655 18.8587 -3.42522 -3.15339 0
60610 4 1.6347 27.7883 5.12078 -3.5368 0
31116 4 12.6282 4.79923 9.15446 -3.46526 0
1878 4 12.8536 23.8715 4.3931 -3.42004 0
15313 2 18.2619 27.7329 -4.50619 -4.87099 0
36055 4 24.0629 11.2778 -2.8934 -3.36242 0
59132 4 17.1398 9.51861 -1.24955 -3.49619 0
53833 4 12.1901 24.9707 7.34125 -3.47613 0
12871 2 12.8289 -0.89202 1.49814 -6.53139 0
19380 2 17.9576 0.430436 12.7771 -6.49889 0
37509 4 23.8081 1.95096 -3.99549 -3.02118 0
42850 2 1.74937 27.7135 -2.4578 -6.57257 0
62073 1 -4.72905 11.1894 9.99107 -4.83741 0
61188 4 20.3083 28.613 13.4806 -3.45482 0
59970 2 2.24098 6.79527 10.8121 -6.12404 0
57799 4 -1.07837 16.9842 9.1586 -3.42446 0
8145 2 0.063789 5.35013 8.77169 -6.78012 0
34253 4 17.0507 25.1529 -4.56161 -3.0016 0
8403 2 -4.99928 16.2041 -1.63855 -6.33055 0
56711 2 14.954 -2.16995 17.5178 -6.55215 0
42170 2 0.726912 15.4961 10.4104 -6.38067 0
3903 4 22.9762 24.1507 -0.619702 -3.49989 0
48065 3 20.0692 16.457 7.88711 -5.16334 0
62166 2 8.05235 -4.5791 12.3549 -6.58834 0
60925 2 7.80334 21.2315 -3.23087 -5.5071 0
6235 2 -1.16694 2.65478 1.95861 -6.56984 0
43312 2 21.1203 26.2308 -0.3633 -6.5915 0
14964 2 26.7204 1.12228 -4.42776 -4.28224 0
32927 2 11.2615 3.50788 11.7347 -6.343 0
25547 4 10.9236 -2.22051 16.6316 -3.55387 0
34126 4 27.8859 22.6423 4.52221 -3.49856 0
42085 4 17.2694 0.386434 15.5538 -3.43854 0
41790 2 -2.20024 10.3622 11.0305 -6.44596 0
60197 2 2.29738 27.5756 8.0631 -6.75609 0
53711 2 12.8557 5.20681 16.07 -6.52671 0
37613 4 15.3102 19.4108 -0.324708 -3.49047 0
28351 2 4.20816 0.788276 14.6279 -6.64496 0
33663 4 16.1756 4.23779 6.41889 -3.5162 0
17019 3 -4.59429 13.2563 -2.50471 -4.82724 0
51647 4 -1.67639 28.8826 18.9119 -3.49409 0
61371 2 18.9953 13.7406 -2.95935 -6.05049 0
43931 2 28.1726 28.5243 5.40384 -6.44355 0
8153 4 21.6317 -4.68532 -1.02726 -3.53159 0
42231 1 28.7448 17.315 4.24846 -4.93815 0
16768 4 6.90805 14.589 9.76569 -3.42143 0
55539 4 20.122 2.0207 12.3904 -3.407 0
7726 4 17.6826 -1.37449 17.1416 -3.52365 0
20898 2 2.94292 24.4914 11.8047 -6.66504 0
27026 2 -1.32918 16.3983 -5.12037 -3.7256 0
21247 4 7.06736 6.0709 13.4974 -3.50431 0
43058 2 -4.33885 3.96071 17.6491 -6.71286 0
29894 4 -4.12482 -4.06726 18.4012 -3.40774 0
44026 2 20.082 17.0852 -3.53603 -5.50877 0
57976 4 6.56324 26.1803 9.35436 -3.48481 0
18495 1 14.0141 17.1442 -3.73557 -4.60247 0
57973 2 9.58928 14.1991 3.66246 -6.39599 0
47175 2 17.6886 17.3225 9.31458 -6.35949 0
28379 4 -4.09192 20.2107 1.47981 -3.4921 0
7237 4 -0.118033 16.2937 16.5804 -3.44426 0
2058 1 25.7241 9.98808 -1.37919 -5.09851 0
6920 4 10.0947 20.4733 4.62857 -3.52879 0
53926 4 9.65094 16.2442 -0.99982 -3.38942 0
9181 4 15.0182 28.6128 6.37567 -3.51507 0
55600 2 12.9195 4.95544 1.43681 -6.45881 0
28145 4 27.1538 28.2369 -2.59242 -3.55033 0
46969 4 22.215 23.0997 16.2941 -3.52357 0
60351 4 -2.20907 2.58845 4.99839 -3.47424 0
17576 2 11.7197 12.4694 -1.89063 -6.34006 0
22092 4 11.2097 0.751339 3.25657 -3.56565 0
39762 2 13.0844 -1.12747 10.2319 -6.42455 0
38769 4 2.0138 5.82967 0.0577912 -3.53576 0
48785 2 -3.90202 4.00688 2.74933 -6.72371 0
19082 2 -3.01354 28.9621 5.08606 -6.49495 0
15489 2 10.9698 8.02858 -3.92261 -5.87753 0
4129 2 2.92895 25.0618 -2.64138 -6.32646 0
21105 2 10.0329 -4.00063 0.49911 -6.34865 0
38576 4 -3.17796 -4.28972 13.6247 -3.56441 0
15899 2 15.704 15.1719 -2.62273 -6.24168 0
50084 4 26.1408 24.1315 3.39363 -3.50383 0
44952 4 10.3153 20.5102 -2.18293 -3.44911 0
50537 4 11.5713 17.6393 4.038 -3.434 0
44156 4 20.2822 14.1023 18.1769 -3.42312 0
31612 4 2.60362 11.4976 -1.58022 -3.4477 0
42998 4 3.06344 11.9652 7.46016 -3.47151 0
23285 4 14.6551 19.8296 11.724 -3.45784 0
34283 2 11.5682 22.1618 6.26899 -6.59604 0
41976 2 4.0874 19.3331 17.0877 -6.3668 0
61888 2 15.1514 -0.0541074 5.69361 -6.34463 0
25773 4 19.6009 24.7053 -4.79845 -2.83174 0
28314 2 10.4216 14.27 -3.75083 -5.20604 0
16760 2 22.5816 3.68131 11.0436 -6.53042 0
40427 3 13.342 1.24282 12.8007 -5.05363 0
52140 4 22.7764 28.1866 -4.3964 -3.1101 0
31206 4 -1.01345 7.25079 14.3043 -3.50512 0
29018 1 25.0655 16.7901 8.28927 -4.97215 0
34729 4 22.6206 13.198 5.92705 -3.53872 0
59520 2 15.0333 3.89052 -0.673716 -6.74445 0
26305 2 2.63382 -1.12951 3.95173 -6.25241 0
46163 4 14.5769 2.45133 6.24826 -3.52265 0
48613 4 16.8095 10.9741 9.26852 -3.47594 0
56069 4 9.6536 1.3591 7.79 -3.52599 0
19186 4 22.6403 21.5608 -3.44308 -3.29516 0
1763 2 7.9117 20.5291 18.4998 -6.44123 0
36922 2 5.51625 26.6124 6.6207 -6.66666 0
55922 4 8.13146 15.7547 1.79747 -3.5001 0
15103 4 12.8685 -4.03115 17.1981 -3.47787 0
8331 2 17.0788 -0.296527 3.25517 -6.45607 0
19346 2 26.7681 5.8163 -3.99828 -5.19169 0
45503 4 2.92886 22.6866 9.59131 -3.54883 0
43360 3 20.1968 -3.87188 12.049 -5.03959 0
32796 4 1.54782 16.695 4.74946 -3.52752 0
56702 2 11.3246 -1.76496 -1.14039 -6.45699 0
6929 4 -4.57656 1.18118 5.01317 -3.51235 0
17433 4 10.8568 -4.85581 11.5109 -3.4656 0
18636 2 25.8027 10.4914 3.15075 -6.47402 0
56145 4 0.624556 25.7113 -4.42144 -2.94483 0
31020 4 4.81995 -0.58577 -0.498525 -3.48163 0
26563 2 15.1024 -1.14039 12.4807 -6.52804 0
41745 4 19.3109 -5.25109 15.7164 -3.4694 0
23156 2 21.4157 11.9136 -2.79123 -5.76701 0
44559 4 -3.02169 -2.84239 6.81268 -3.48047 0
19556 4 -0.00487627 -1.89902 -0.204815 -3.46879 0
35842 4 17.4853 -0.383683 9.97836 -3.46937 0
3773 4 1.35542 -2.18554 -4.61147 -2.90224 0
27868 4 -1.14434 20.5885 10.1133 -3.49546 0
8772 2 12.1035 8.20742 11.9623 -6.57994 0
47914 1 18.6925 10.8489 -3.4432 -4.38077 0
40224 2 15.8658 9.93973 -3.76735 -5.50981 0
40868 3 14.9821 0.929358 -4.86713 -2.96603 0
15634 4 5.68379 -3.53239 14.0865 -3.4606 0
19511 1 22.8683 16.2989 16.2691 -5.01069 0
47703 4 15.2461 27.821 3.91653 -3.55068 0
14861 4 0.515346 10.031 2.77193 -3.48603 0
26760 2 19.4044 2.1969 3.57174 -6.65506 0
36302 2 20.9105 -1.9853 -0.836931 -6.5022 0
39699 4 26.2926 17.4405 18.8418 -3.39239 0
32629 4 25.349 1.88447 6.38147 -3.48459 0
26975 4 20.1657 -2.67818 20.3905 -3.41922 0
57199 2 11.0397 14.4037 15.6163 -6.60412 0
24201 4 3.55315 3.02884 -2.90728 -3.22523 0
55006 2 26.6551 18.766 2.63503 -6.35832 0
2280 2 -2.30325 -0.649567 -0.817404 -6.52559 0
49656 4 15.3544 23.7674 2.12451 -3.4944 0
1516 1 23.6182 15.1609 3.83473 -5.03214 0
56091 2 10.7508 18.8094 6.73525 -6.5816 0
21950 4 15.0332 6.23089 18.2225 -3.53083 0
43787 2 -3.5223 8.06409 -0.662874 -6.60038 0
4156 4 -1.59479 13.5157 3.87456 -3.49391 0
34279 4 26.086 -3.29012 2.0668 -3.48717 0
42396 2 11.376 24.5434 14.9372 -6.52954 0
56630 2 11.6797 5.15507 -4.65818 -4.64209 0
1067 2 0.930543 0.793952 -0.0188983 -6.55682 0
22147 3 19.7783 25.327 2.44607 -5.00196 0
36012 4 24.3174 -2.91044 16.015 -3.52269 0
10 2 21.0495 0.747424 0.983974 -6.52067 0
58990 2 5.82895 9.82128 1.27095 -6.32146 0
6571 4 -2.75805 19.3371 6.31613 -3.51966 0
24701 2 10.4856 22.9101 3.07562 -6.52387 0
32047 2 3.31268 -3.59733 2.08598 -6.44155 0
39550 4 17.7092 -2.48492 12.5099 -3.51717 0
281 4 1.92432 0.358773 18.5132 -3.51064 0
20407 4 4.76623 12.6908 5.82329 -3.50675 0
52491 2 -4.18324 23.5603 -2.57217 -6.55377 0
24371 2 20.138 3.07245 -1.3678 -6.44492 0
8108 4 9.62235 5.94712 -2.61833 -3.51688 0
19731 2 14.3311 12.6532 3.09168 -6.27645 0
13038 2 20.8635 20.1463 0.376501 -6.43556 0
6912 4 -1.08634 10.7829 -3.50612 -3.27596 0
33159 2 16.4658 20.5718 -2.9817 -6.04689 0
36471 4 1.90845 8.29545 3.97106 -3.5225 0
36349 4 6.98539 23.3177 18.4731 -3.52642 0
38085 4 27.0604 25.3891 16.5251 -3.37492 0
33120 2 16.024 5.07785 15.4238 -6.56712 0
59843 4 13.8854 3.72038 10.981 -3.40285 0
38319 4 12.7219 1.72301 10.0294 -3.4827 0
13660 2 24.7614 0.976861 3.70852 -6.53287 0
684 4 27.9776 3.25142 18.0058 -3.54156 0
57299 2 -4.1216 -3.73375 -3.20821 -5.85072 0
50584 2 -3.35749 20.7306 11.4744 -6.22812 0
55280 4 24.9738 -0.694656 16.9466 -3.43286 0
56352 2 23.0746 17.7429 -0.924856 -6.5346 0
13106 4 -1.65023 21.5132 5.69727 -3.43608 0
25322 4 14.8434 3.28748 2.26157 -3.44808 0
48905 4 -2.39729 9.9706 6.35813 -3.46902 0
36003 2 26.9882 -2.03257 15.6899 -6.30161 0
32997 4 18.2066 7.01016 -1.68882 -3.35816 0
47276 2 22.2939 7.25605 7.06427 -6.47551 0
5436 2 13.4185 27.4534 -2.91637 -6.13454 0
51372 4 14.9827 19.2488 -4.67359 -3.01032 0
43347 4 8.69038 1.70532 18.9641 -3.52526 0
20492 2 -1.64889 16.6445 3.82838 -6.31285 0
18700 2 2.33729 3.83085 6.75191 -6.4471 0
55296 2 3.05383 25.0871 6.06992 -6.34434 0
21330 3 -0.59473 19.1613 8.00044 -4.87681 0
15836 4 13.8384 7.81839 5.1697 -3.42757 0
33696 4 20.0405 3.44371 1.31761 -3.49181 0
40130 4 -3.74557 -0.553107 15.948 -3.38549 0
49425 4 16.1132 17.543 11.5931 -3.55465 0
9245 4 1.43931 -3.58324 10.886 -3.47135 0
36569 4 9.55127 7.21957 5.32254 -3.52496 0
11769 2 3.63925 21.0662 -0.250903 -6.67024 0
49374 4 15.9917 3.12819 -3.13554 -3.31828 0
52996 2 -3.55221 2.59743 -4.88662 -4.12797 0
10567 2 19.1016 14.9624 15.9205 -6.43286 0
42304 4 -1.86444 14.7598 1.77405 -3.52649 0
23167 2 11.0057 8.78738 3.52173 -6.34867 0
24120 4 -2.97744 1.18242 3.14566 -3.51599 0
44350 2 -3.16917 19.2385 16.9416 -6.548 0
36536 4 8.38201 26.0487 7.44675 -3.42709 0
5123 4 14.1535 0.74481 3.3366 -3.53017 0
18689 2 -2.03536 14.1818 11.3634 -6.34897 0
40021 4 20.042 28.5066 10.9873 -3.45865 0
46170 4 -4.82089 2.30647 7.07967 -3.52781 0
1725 4 3.93371 4.06073 1.07503 -3.5119 0
36844 2 1.85537 8.10858 13.7947 -6.46647 0
15511 1 11.9051 -2.34656 19.0887 -5.06736 0
25040 2 -2.31871 16.0887 18.136 -6.60775 0
52961 4 16.1946 9.76832 17.6664 -3.4305 0
2820 4 25.5788 16.8672 16.3708 -3.50624 0
29416 2 -4.03077 24.4851 8.63684 -6.55115 0
16099 1 4.32792 15.6091 14.0031 -5.10901 0
42327 3 23.7535 8.84876 16.2076 -4.93456 0
8389 4 -0.178273 -3.21642 16.8448 -3.52618 0
58371 2 5.79617 -0.731939 9.36364 -6.53103 0
9588 4 24.8617 -4.27402 -4.40656 -2.94837 0
61201 4 0.277039 3.86041 -0.623237 -3.45418 0
9148 2 15.0684 7.55599 11.4027 -6.27954 0
37962 1 2.70969 13.3398 -3.85331 -4.23057 0
38240 4 19.7164 5.43623 -2.64613 -3.39565 0
23410 1 -1.98084 9.54693 1.46436 -5.07676 0
35663 2 25.1214 10.8886 6.40537 -6.09417 0
26809 2 5.27977 13.6357 -2.65074 -6.56474 0
24650 4 -1.09198 14.2867 16.0598 -3.4063 0
36172 2 25.3072 27.7024 9.0814 -6.25948 0
41006 4 3.50085 22.5357 -3.30142 -3.10161 0
28733 2 24.3631 19.0627 15.9592 -6.61359 0
60929 4 -0.891896 2.77252 -5.07464 -2.66462 0
3937 4 2.57624 14.0357 -1.50483 -3.5225 0
6016 2 10.176 10.823 -4.10076 -4.94969 0
2260 4 11.6476 -4.62015 -1.7371 -3.5575 0
40534 2 8.21927 3.38007 0.454586 -6.44572 0
43999 4 2.71768 -4.50737 -3.79906 -3.18847 0
17417 4 27.0926 14.9794 8.40593 -3.50048 0
55383 2 1.76809 3.90248 11.6037 -6.46308 0
41619 1 6.13748 12.3391 14.9614 -4.97686 0
3097 2 26.6671 24.3163 -5.17912 -4.36292 0
15712 2 12.44 15.0931 9.70471 -6.61369 0
57769 2 -4.08596 12.2185 12.6501 -6.18304 0
35998 4 12.0375 14.8573 -0.00854438 -3.41607 0
25997 2 -3.75651 26.6344 -4.10745 -4.72912 0
62054 4 -0.103072 25.0349 11.5096 -3.56246 0
41579 2 25.4946 1.83939 18.6443 -6.73037 0
41704 4 10.5679 7.45144 -0.953769 -3.5288 0
62395 3 14.2019 14.8007 7.19384 -4.95489 0
23608 4 7.77225 8.29952 6.57641 -3.56819 0
40433 2 -1.76324 7.32175 6.4269 -6.77533 0
29530 2 26.6453 7.68435 19.5826 -6.19388 0
30233 2 -0.0797285 12.2428 10.1635 -6.43613 0
16468 2 -4.15632 14.9369 3.08967 -6.55209 0
58657 2 4.6472 -0.870457 6.31506 -6.46499 0
42421 4 7.49782 -1.94894 6.54707 -3.45632 0
26872 4 2.06548 19.4537 7.70113 -3.47117 0
43682 4 12.5634 19.158 -5.0742 -2.80348 0
30612 2 14.0493 20.7374 14.1605 -6.14422 0
19342 2 23.314 23.4077 7.11501 -6.54921 0
34420 2 -0.1221 1.9061 16.8829 -6.38313 0
27280 4 -2.22904 16.752 15.3816 -3.37507 0
10765 4 20.9546 22.7038 2.95972 -3.54839 0
4102 4 1.27402 7.87884 1.32632 -3.5347 0
62108 4 6.38125 14.9656 15.3938 -3.44523 0
28450 4 17.925 20.1549 8.56911 -3.43431 0
11634 2 5.9716 19.3845 10.0796 -6.48317 0
863 2 -1.08096 23.9219 16.1238 -6.60648 0
25262 2 3.95471 10.8159 -3.8196 -4.83637 0
59235 2 19.5107 22.6378 16.0696 -6.36408 0
35854 3 24.3065 8.53811 5.24534 -4.94153 0
12074 2 24.9138 29.0792 14.1473 -6.68323 0
7846 4 3.21383 23.2982 3.92732 -3.4729 0
24652 2 15.6306 1.58753 10.9437 -6.5975 0
23341 2 11.998 -3.72285 2.69614 -6.41736 0
31220 2 25.035 -0.647835 13.9999 -6.33103 0
36236 2 2.96623 12.0071 10.402 -6.64561 0
13219 2 -4.52306 -3.04677 11.3519 -6.62813 0
8626 4 16.4364 -1.80916 14.7234 -3.42543 0
35330 4 20.8499 25.5192 19.7941 -3.42963 0
9724 4 26.1491 7.79605 2.84443 -3.53039 0
5003 4 22.7135 15.7559 9.20421 -3.57258 0
58981 4 27.9575 25.583 -2.9319 -3.41993 0
15996 2 20.1287 16.819 -0.398874 -6.35321 0
38551 4 28.1847 23.5411 9.91188 -3.4238 0
47709 2 9.95188 21.9357 16.316 -6.48653 0
61935 4 24.7862 -0.468549 -2.31852 -3.41633 0
22535 2 17.6944 20.0614 11.1744 -6.67406 0
33756 4 8.66361 14.5734 5.93535 -3.41089 0
34795 4 15.679 27.2821 -4.46751 -3.03132 0
40663 1 6.32358 5.29699 0.711932 -5.18301 0
10901 4 8.83984 17.7396 18.8829 -3.44502 0
52021 2 4.30953 14.1731 16.6696 -6.60246 0
23671 2 18.9842 15.3846 2.12847 -6.28331 0
60674 2 1.79018 14.1016 14.8414 -6.38146 0
37652 4 8.24009 -2.16744 -4.43129 -3.0839 0
62136 4 -2.93566 1.83813 16.3531 -3.5061 0
37879 1 -4.07762 20.7388 -3.04641 -4.87407 0
47586 2 22.6195 5.97301 4.34111 -6.42238 0
55522 2 0.916463 6.34151 5.64566 -6.60533 0
10735 3 5.15165 -1.13073 12.4843 -5.02057 0
18772 2 10.3136 6.1652 10.4817 -6.39737 0
49863 4 25.2603 -5.05452 8.77987 -3.50996 0
12573 2 18.1979 21.7432 18.6747 -6.5661 0
30678 4 9.12697 6.01452 18.3468 -3.48642 0
35960 4 8.9205 20.864 13.8105 -3.47187 0
31767 2 20.7328 26.3602 9.36028 -6.39671 0
18841 1 2.73394 28.6632 17.6702 -5.05577 0
11145 4 18.7095 22.9314 11.6203 -3.53042 0
8388 4 25.8937 21.2586 17.2861 -3.46258 0
23567 2 -1.19391 27.6081 -3.10031 -5.76277 0
26787 2 6.38699 15.1363 4.17491 -6.63656 0
10941 2 12.8162 7.43666 9.13018 -6.52118 0
59937 2 8.43232 25.645 3.17208 -6.59148 0
38773 4 2.26247 7.7937 -1.13606 -3.46084 0
37463 2 3.69492 1.00192 1.39625 -6.6197 0
52849 1 13.8794 23.5394 14.0021 -5.17685 0
23508 2 28.0483 27.0524 8.17091 -6.54594 0
54413 2 4.29385 16.0884 -0.372268 -6.59669 0
9456 2 24.8856 1.88412 -1.23805 -6.51806 0
48942 1 8.53734 -3.9499 2.88706 -5.01484 0
36494 2 -2.02776 11.6693 16.3167 -6.17599 0
37327 2 10.5074 0.62154 10.7549 -6.3548 0
44261 2 25.0665 23.868 -2.29131 -6.64762 0
29660 4 21.0601 -2.915 8.33217 -3.41753 0
51806 2 23.3621 -3.64691 1.04328 -6.76669 0
15565 2 4.56043 18.7448 14.1712 -6.51443 0
57634 2 6.93626 11.044 -4.44944 -4.46317 0
7076 4 4.08514 25.3516 1.84024 -3.40444 0
3486 4 19.2945 26.8217 14.7668 -3.51894 0
2372 2 21.6697 20.4326 15.5879 -6.44249 0
6974 2 -2.30357 8.85622 16.8019 -6.38478 0
7934 2 5.82325 -4.08282 -3.45142 -5.2887 0
21511 4 6.43213 -3.28959 8.24826 -3.35779 0
1795 4 22.3475 24.5286 1.72528 -3.51292 0
7911 4 20.9776 21.2363 18.1286 -3.48684 0
58399 3 -3.02306 7.67784 12.1851 -5.05666 0
10138 2 8.7969 8.80585 0.967455 -6.5834 0
28056 2 26.5049 14.4363 15.0545 -6.54384 0
58613 4 12.9755 5.76941 11.4288 -3.4718 0
44965 2 23.6103 6.17785 9.57413 -6.64192 0
8545 4 14.5224 5.01653 -3.23456 -3.33095 0
41523 2 19.1359 25.8616 17.2864 -6.57172 0
37894 2 27.2024 3.59453 3.25482 -6.79229 0
33504 2 10.2383 3.32056 -2.12872 -6.33806 0
54083 2 11.8317 27.3992 -0.504807 -6.26651 0
12159 2 25.7414 0.679945 8.74396 -6.45394 0
37163 1 26.9414 3.91638 6.28923 -4.97475 0
41909 2 28.5576 5.41613 10.6634 -6.39722 0
56534 2 16.6489 21.2925 6.35833 -6.54361 0
13235 4 17.0589 11.9851 4.29115 -3.47328 0
14755 2 27.9264 22.2741 7.30408 -6.71219 0
29268 4 25.8844 23.1459 5.88469 -3.50364 0
6919 2 21.1105 22.5689 13.4649 -6.7862 0
34748 4 9.22306 4.68875 13.0497 -3.45083 0
41759 2 17.5494 27.553 12.898 -6.60924 0
2277 2 5.54013 23.8338 13.492 -6.65473 0
60132 4 16.4565 12.2316 -1.85038 -3.50713 0
5276 4 -0.901087 9.80186 8.37987 -3.5237 0
50212 2 26.6153 -1.24864 18.9576 -6.33117 0
54396 2 5.1385 19.2322 7.29759 -6.60565 0
53471 2 24.2085 6.01595 16.5368 -6.33565 0
13802 1 -0.95877 26.0908 1.98405 -4.89016 0
41954 4 10.2032 16.306 5.49294 -3.44551 0
42361 4 -2.83109 5.78005 8.4096 -3.47837 0
57885 2 18.9243 2.6574 14.8868 -6.70856 0
60600 1 13.5734 25.0209 18.3465 -4.9634 0
33651 2 16.0876 -4.28129 11.3189 -6.3408 0
49622 2 -4.7344 20.7797 4.88061 -6.54184 0
53411 2 8.6554 -3.75478 -2.1129 -6.72714 0
24338 2 5.60414 24.744 16.4558 -6.37082 0
7862 2 28.2713 11.7663 15.0719 -6.89509 0
41126 4 6.88559 16.8924 13.8512 -3.55099 0
14111 2 19.3328 22.0473 -2.69272 -6.23718 0
17286 4 9.18739 6.45054 -5.01894 -2.92665 0
51266 2 9.03939 23.1625 -1.19678 -6.33133 0
17836 4 7.57205 -2.60881 1.04803 -3.39931 0
32660 4 20.8295 26.7442 -3.68104 -3.33708 0
2697 2 1.42507 2.1013 14.2357 -6.53693 0
44437 4 28.4024 -2.84045 5.57246 -3.57393 0
51934 2 15.3762 2.0048 20.4296 -6.76781 0
13786 2 17.975 6.75696 10.8431 -6.67135 0
30243 2 7.02402 4.50752 11.1891 -6.29395 0
23763 2 17.8024 13.003 14.0626 -6.40559 0
19269 2 24.1804 20.154 1.88437 -6.54105 0
22024 4 7.91526 15.2198 -2.251 -3.42357 0
55641 2 12.2501 -1.58278 4.62623 -6.40453 0
36071 2 22.9291 26.4414 7.22337 -6.4385 0
14778 2 1.54882 25.7821 0.277474 -6.69432 0
38474 1 3.79406 5.8007 5.33726 -5.01385 0
21830 2 8.26676 13.1358 20.1914 -6.22587 0
299 4 -1.68953 -3.46195 -1.13291 -3.45823 0
61335 2 0.256091 14.8996 -0.100131 -6.45383 0
54574 4 5.34918 17.0796 16.2456 -3.52576 0
57412 4 21.8902 8.81476 9.45171 -3.54624 0
10486 2 4.35754 16.4844 6.37342 -6.39349 0
19102 4 20.8229 10.0369 2.64125 -3.5042 0
50928 4 13.1316 12.7938 11.1782 -3.50778 0
34562 2 20.0115 -1.02836 11.2518 -6.36482 0
23569 4 3.13367 27.7417 1.92702 -3.51011 0
10463 1 25.3276 24.4047 20.361 -5.04904 0
21096 2 1.25651 2.17665 9.0104 -6.61241 0
37553 4 14.1953 26.2918 8.10434 -3.48421 0
30220 4 13.3009 7.44967 2.81186 -3.4914 0
18833 2 5.46007 2.54246 -0.728809 -6.69748 0
35391 4 22.5383 27.3146 11.5258 -3.4763 0
5783 4 -0.686984 3.44667 13.1103 -3.50797 0
21113 4 11.5245 22.0116 13.9949 -3.53058 0
40136 4 24.5752 25.1 5.2467 -3.53105 0
5307 2 11.051 -2.90075 -4.16807 -5.1395 0
31195 4 4.39222 27.7093 -3.1433 -3.48622 0
13146 4 15.5031 -3.54722 -3.75714 -2.96421 0
1495 2 7.58349 21.9513 11.2692 -6.79148 0
56080 2 5.39877 -3.36142 -0.384417 -6.52947 0
511 4 19.0695 27.843 -1.3733 -3.4914 0
44130 2 16.8858 12.7229 -4.81581 -3.70676 0
21695 4 -0.165521 9.86803 15.1658 -3.48169 0
44647 2 7.04268 1.01384 6.69366 -6.66062 0
55561 4 6.05905 11.024 -1.60245 -3.448 0
61847 2 13.2485 22.3532 16.3888 -6.42231 0
39169 2 -1.10677 -3.46232 11.8164 -6.78022 0
4103 4 12.2259 23.5035 -4.67266 -3.03405 0
22150 2 26.8535 1.20306 1.07782 -6.58207 0
37831 4 12.0388 11.8025 0.749085 -3.37887 0
59985 4 28.8881 -0.360999 5.54284 -3.51526 0
11501 1 -5.08511 12.8835 4.707 -4.99097 0
39607 4 -4.73922 10.2703 0.241265 -3.51792 0
56986 4 16.8011 19.3867 1.82631 -3.42926 0
52685 4 24.6489 3.77431 4.3728 -3.59211 0
50146 2 -2.92222 21.4102 8.17938 -6.54195 0
25531 4 10.1657 22.5092 -3.70378 -3.08814 0
52432 4 8.89752 -0.972603 -0.766089 -3.49152 0
28304 4 2.5989 22.616 13.7941 -3.52608 0
55451 2 1.06974 26.287 16.0098 -6.65658 0
61998 2 28.3834 22.3628 12.6318 -6.66606 0
38569 1 18.3767 0.158373 5.57134 -5.0576 0
12285 2 1.59249 26.7829 13.1199 -6.2046 0
57160 4 -1.86713 21.0547 15.1201 -3.57564 0
2907 2 19.8373 25.6486 12.1692 -6.77564 0
52167 4 10.8312 17.5016 9.19324 -3.52476 0
37725 2 9.69554 -1.33921 2.03803 -6.58189 0
20763 4 13.6912 -2.18331 -4.97528 -2.62187 0
31406 2 3.07611 0.0923901 -4.62553 -4.10973 0
14977 4 23.0328 16.5189 -3.7331 -3.10762 0
41524 2 8.80367 17.8091 3.62205 -6.47577 0
9174 4 0.167021 19.4038 19.9096 -3.53569 0
20297 2 -2.23776 6.37975 18.5274 -6.26444 0
53627 2 25.007 10.3239 18.7692 -6.67908 0
21429 4 5.42614 21.7034 17.4303 -3.46237 0
12582 2 7.07899 20.9256 -0.228509 -6.31271 0
28753 1 3.38123 18.4889 0.988443 -4.96694 0
32529 3 22.1211 0.337362 3.70076 -4.96595 0
33340 4 -3.34209 16.1577 13.2449 -3.52326 0
9355 4 3.456 3.80807 15.2594 -3.45344 0
33813 4 22.2989 17.9497 14.1904 -3.53737 0
8718 1 14.2231 -1.1265 -0.71222 -5.12835 0
25528 4 6.69271 27.0972 16.3115 -3.53169 0
6305 4 25.5294 -4.26874 11.2271 -3.5111 0
14339 4 -2.15968 5.37566 13.1363 -3.35281 0
25843 4 -3.77669 28.4856 18.0201 -3.47682 0
57182 4 -2.78829 12.1687 5.48366 -3.44209 0
46784 2 -0.531284 15.588 13.6309 -6.38087 0
32144 4 15.2409 16.1466 9.5269 -3.50002 0
3057 2 6.49442 3.424 14.2103 -6.84247 0
43037 2 25.3387 4.84541 18.9975 -6.70781 0
41498 3 17.415 7.34162 16.9954 -4.99266 0
26133 4 14.2084 -3.90452 9.45406 -3.52105 0
38983 3 10.8937 19.4834 2.18411 -5.05007 0
19634 2 5.1587 6.66173 10.0252 -6.43273 0
6507 2 -4.80722 24.5262 3.58492 -6.56565 0
54136 2 13.6646 5.37537 6.68711 -6.6739 0
46476 2 -3.5451 14.6722 6.27748 -6.53377 0
8270 4 7.61905 11.3476 0.116252 -3.38809 0
1475 2 -4.08632 13.8921 17.07 -6.40542 0
9901 2 -0.214319 -4.70815 6.33378 -6.5986 0
53996 4 1.41922 1.11334 2.6728 -3.50012 0
60983 2 1.21919 9.57331 -3.04332 -5.92796 0
53004 4 11.0723 0.149231 19.6222 -3.45566 0
49406 2 -5.05644 3.68637 9.80024 -6.74148 0
61905 2 -0.943791 12.356 13.5443 -6.595 0
26067 2 27.0911 20.8684 10.2701 -6.66895 0
9421 4 14.2224 25.6769 3.40763 -3.54616 0
6178 4 -1.05152 4.53865 6.43842 -3.4916 0
41559 4 16.694 -3.02588 3.08701 -3.48195 0
6503 2 13.874 -2.39104 7.25531 -6.5497 0
38669 4 26.0873 -3.33678 4.80561 -3.47847 0
60089 2 6.82947 -1.29123 -2.38404 -6.16361 0
12942 2 22.0257 14.9633 -1.84542 -6.11693 0
62141 2 -5.17411 1.89236 20.2863 -6.46296 0
42753 4 12.6446 19.8819 4.54734 -3.53154 0
60136 4 19.5862 10.9383 12.871 -3.48754 0
57995 4 4.96739 24.6852 -4.08152 -2.8694 0
22504 4 23.9508 26.1582 0.429647 -3.4679 0
3346 4 20.5948 21.135 11.1408 -3.46775 0
35240 2 -0.500655 8.27942 19.7372 -6.5759 0
19434 2 24.7068 14.3059 -3.38378 -4.76346 0
4183 3 -4.64373 16.6397 15.8925 -4.9335 0
51966 3 23.0033 28.5681 -0.0325077 -4.93854 0
24471 4 0.526489 11.8419 -4.8002 -2.54923 0
39750 4 16.5149 8.67557 9.22335 -3.46612 0
58211 2 5.44291 24.9188 3.87308 -6.18578 0
46387 4 21.4719 -1.81858 2.13669 -3.45909 0
14156 2 23.7618 22.5639 3.76474 -6.85451 0
49999 2 -1.31775 14.4517 8.27569 -6.21103 0
3901 4 12.0495 3.27551 -0.316808 -3.42525 0
18687 2 -3.36149 3.4214 14.2838 -6.09145 0
40465 4 18.4599 1.29582 1.00795 -3.46893 0
24565 4 25.8317 12.7668 -1.44887 -3.54534 0
16514 4 26.0743 10.3107 15.7347 -3.46013 0
41001 4 25.2911 -0.998506 1.58217 -3.40613 0
13766 3 23.3307 26.5294 -2.12458 -5.18491 0
52627 2 22.5833 14.1311 11.2611 -6.14701 0
49578 2 25.1494 15.3706 -0.307237 -6.50242 0
54258 2 28.7709 20.1259 -2.05298 -6.30484 0
60614 2 10.0432 0.0307722 -3.18553 -5.634 0
6938 2 9.67394 21.3486 8.76149 -6.30035 0
47254 2 -5.08298 5.81393 12.4776 -6.4082 0
44247 4 5.96212 18.5489 -0.454899 -3.47058 0
21148 2 -4.43216 13.2062 0.375973 -6.46964 0
4445 2 8.29886 -3.60061 15.9375 -6.4963 0
34236 4 0.364517 21.6186 14.5384 -3.45274 0
30708 2 0.499993 15.1663 -3.1229 -5.77128 0
24317 2 16.7273 19.1814 13.9729 -6.65337 0
56191 2 27.4058 6.14075 0.684533 -6.59028 0
56333 4 25.6696 3.58339 16.5523 -3.51858 0
44182 2 -0.358575 21.2894 17.6348 -6.89855 0
17565 2 10.8729 20.0232 19.007 -6.4779 0
38847 2 -3.88495 4.78482 5.90073 -6.48853 0
1130 4 26.2114 21.8073 2.95472 -3.39741 0
49581 4 1.15128 -3.47336 14.3848 -3.45761 0
59236 2 22.6084 -0.817186 9.20061 -6.27036 0
18330 4 6.91138 2.88729 8.92923 -3.44471 0
25770 2 10.8519 3.01919 14.6426 -6.51898 0
26856 2 25.3743 13.2166 4.90362 -6.25312 0
32516 4 11.3825 24.0145 17.5055 -3.51803 0
7463 1 -1.58577 23.1392 10.2309 -4.91853 0
54134 4 5.23166 3.00073 16.6849 -3.45833 0
54182 2 -5.23005 16.5548 8.03056 -6.57336 0
36859 4 2.34404 7.6895 19.0616 -3.40581 0
23843 4 5.40045 5.38203 15.7064 -3.51747 0
29001 2 12.568 12.2971 14.0655 -6.53526 0
55606 4 21.7729 7.55031 17.3514 -3.50731 0
56496 4 6.22983 3.10209 4.89598 -3.42712 0
62033 2 16.5358 26.9336 15.9108 -6.57585 0
20834 2 14.4276 24.3196 10.7238 -6.6105 0
7506 4 12.5925 12.2839 16.9776 -3.49924 0
42900 2 -2.62291 11.9812 8.25613 -6.2515 0
54964 4 21.9073 8.16234 19.6821 -3.40354 0
19748 2 -2.48154 25.5639 -0.808186 -6.62911 0
22661 2 8.98288 6.21737 2.42994 -6.55887 0
51360 2 -4.30524 17.6104 5.05769 -6.58308 0
4684 2 -4.73536 11.2775 20.39 -6.7327 0
20027 3 -2.91984 22.1204 3.0663 -5.08409 0