ITEM: TIMESTEP
400000
ITEM: NUMBER OF ATOMS
62500
ITEM: BOX BOUNDS pp pp pp
-5.2529854340047777e+00 9.7752985433206206e+01
-5.2529854340047777e+00 9.7752985433206206e+01
-5.2529854340047777e+00 1.6775298543320599e+02
ITEM: ATOMS id type x y z c_pe_atom c_ke_atom
9121 4 -0.876114 27.232 4.40645 -3.5442 0
8793 2 -4.73606 13.8443 9.40439 -6.49755 3.07149e-06
22402 2 -3.13051 9.66687 14.0058 -6.60759 7.50979e-06
25271 2 -0.240139 5.44832 1.7484 -6.2071 0
40927 2 3.86064 14.5505 8.57307 -6.47966 3.4817e-05
936 3 4.50964 -4.54033 6.53086 -5.01339 8.22942e-06
31186 2 9.21217 15.5505 8.45497 -6.50939 1.20775e-05
31857 2 12.8584 27.7718 2.17723 -6.1021 0
46697 2 17.9677 24.3643 14.1874 -6.73835 2.08626e-06
45565 4 13.086 -3.4488 0.0453581 -3.54576 0
1414 2 14.9006 -4.50349 1.74661 -6.52218 0
20463 2 21.2847 5.01512 15.9014 -6.53648 1.55755e-06
48784 1 15.2199 -4.86323 18.0266 -4.8482 2.2604e-07
20631 2 -4.68194 0.788225 13.5605 -6.46099 1.27017e-05
6337 4 0.86896 27.3671 10.4317 -3.5196 1.98708e-05
6545 4 5.01967 -1.4786 1.78118 -3.4889 0
23806 4 3.21336 -1.89454 10.6232 -3.52498 1.26569e-05
28744 2 8.43962 12.5338 -2.42855 -6.37005 0
52521 4 0.256975 25.2748 -1.94424 -3.53259 0
20586 2 15.3305 12.7325 18.2112 -6.66512 8.69106e-06
20979 2 2.89959 18.9702 5.19673 -6.49145 1.34117e-05
30194 4 4.46638 1.87648 6.07541 -3.57759 1.44791e-05
32915 2 3.55558 -2.03575 -2.59537 -6.57628 0
61404 4 -3.89146 -0.696414 1.73276 -3.58044 0
6550 2 22.2846 15.365 1.23479 -6.6071 0
40684 1 -2.18752 13.9661 -1.21636 -4.79924 0
11465 1 -0.611352 7.0771 -3.74527 -4.40575 0
1155 4 17.3957 18.4439 19.1393 -3.51486 2.14673e-05
25235 1 2.95574 -0.24128 8.49387 -5.08086 9.46452e-07
60722 2 27.9934 14.7692 5.59023 -6.46996 1.45486e-05
24378 4 7.19752 18.8738 -4.55031 -3.02101 0
13973 2 21.8091 24.9649 4.57748 -6.79992 0
27896 2 2.38382 16.9486 15.6947 -6.45828 2.45999e-05
8218 4 3.20041 11.8097 15.493 -3.57699 7.89776e-06
4683 4 3.83759 27.0034 4.09496 -3.37489 0
14561 4 1.18059 -1.83956 18.3909 -3.51767 7.82279e-06
50423 4 -3.0541 24.6247 1.6783 -3.53526 0
46746 4 17.6625 4.66244 -1.44928 -3.4729 0
53173 4 21.8229 7.23477 -4.18214 -2.98244 0
17354 2 -1.37848 -2.20505 -3.78978 -5.28489 0
35158 3 9.84158 10.2017 5.57212 -4.99512 2.52704e-06
6654 1 1.00802 -0.701448 -2.58635 -4.91796 0
42048 2 10.297 1.16692 0.265137 -6.60776 0
51709 4 3.15114 0.790235 -1.75919 -3.55615 0
5477 2 28.4717 -1.52539 0.815399 -6.74547 0
33027 2 16.3822 11.3158 1.07574 -6.50156 0
34148 4 15.78 -3.74854 13.7193 -3.50136 4.01753e-06
47466 2 1.66691 2.92729 19.0537 -6.30185 7.39443e-06
43976 2 -2.49664 -3.85792 4.31801 -6.20666 0
30964 4 20.6352 28.0557 16.1676 -3.58013 6.61078e-06
29130 2 7.87371 16.8916 11.0663 -6.45487 2.10595e-06
41838 4 7.88856 10.6413 7.41911 -3.4456 1.04319e-05
22780 1 -4.8336 -3.18463 2.71227 -5.07807 0
23732 2 19.1152 12.263 2.24248 -6.69782 0
20676 2 19.7743 4.19694 10.6081 -6.53008 1.29512e-05
3866 2 6.80028 26.9699 -4.31651 -4.51109 0
12989 2 -3.25346 -1.18482 4.51893 -6.25079 0
27761 4 17.3054 2.6045 16.8267 -3.43945 5.33389e-06
58025 4 6.50905 7.36604 2.1863 -3.55129 0
50174 4 28.9846 5.31685 5.2904 -3.5345 7.37623e-06
62367 4 8.30635 10.0965 14.1025 -3.50605 1.08111e-05
18656 4 23.3542 3.50867 17.3345 -3.55754 1.49886e-05
61274 2 15.0693 10.2713 4.95544 -6.46141 1.01222e-05
796 4 8.5465 8.72485 -5.21272 -2.71503 0
26847 2 22.668 2.07684 8.02987 -6.6089 1.37819e-05
11697 4 14.3662 -1.9282 3.23654 -3.34778 0
12048 2 -1.38505 -0.593149 16.9952 -6.38769 6.01024e-06
56036 4 2.52098 3.2244 -0.773507 -3.43789 0
22663 2 -1.83274 22.9541 12.9311 -6.60044 1.40203e-05
11128 4 18.6516 11.3369 -0.953613 -3.41809 0
11152 2 10.4245 3.49839 2.48055 -6.59097 0
42886 2 26.6088 19.0245 7.86412 -6.11515 4.94637e-06
30165 1 -1.31176 25.8109 13.8208 -5.1527 1.81899e-05
13805 4 3.63259 8.9454 11.6139 -3.46677 6.47664e-07
27531 3 15.5721 19.285 9.22123 -5.04618 5.10658e-06
29092 2 15.2199 5.28779 3.8624 -6.62284 0
56991 2 22.9173 1.14966 12.9642 -6.68016 6.62357e-06
22204 4 1.73513 16.7493 1.15925 -3.42975 0
40412 4 -3.50888 23.3306 5.8687 -3.58063 1.90862e-05
21440 4 13.2917 8.24074 -2.48121 -3.42003 0
24931 4 -0.120458 18.1337 5.50131 -3.48954 6.15791e-07
29213 4 26.1231 -2.23037 -3.27974 -3.29617 0
58132 2 19.3765 -2.15723 14.6072 -6.71892 2.18458e-06
45303 2 10.1296 11.4567 15.8708 -6.64329 1.78349e-05
45925 2 2.53759 21.2087 18.9165 -6.75572 2.59204e-06
11182 4 2.78906 1.98417 16.5653 -3.51109 4.15622e-06
50543 4 -0.749899 -1.97643 14.386 -3.56463 1.89793e-05
4393 4 0.13399 1.37182 11.7027 -3.57527 1.32141e-05
26091 2 3.02945 0.882948 11.2896 -6.53622 1.05681e-05
54878 4 26.4292 12.7668 9.69259 -3.43244 5.67111e-06
57861 4 -3.43167 16.0714 0.455035 -3.46694 0
14789 4 28.5915 3.46556 0.624911 -3.51492 0
34096 2 7.25534 28.0466 11.4345 -6.82283 4.15484e-06
30732 2 14.6817 22.0442 -0.1518 -6.46439 0
10538 2 29.0686 20.2373 3.20273 -6.62543 0
50317 4 1.18167 -4.00029 0.554752 -3.47082 0
42132 1 0.0756459 20.5648 -5.06995 -3.21026 0
12031 2 1.13692 2.18105 -3.11519 -5.76483 0
31437 2 21.3942 20.0415 3.49177 -6.48684 0
61906 1 0.87567 -1.79558 2.1145 -4.84678 0
49107 2 22.3138 -0.952032 15.9478 -6.71987 3.45413e-05
18693 2 9.28765 -4.4834 7.25271 -6.51557 1.65123e-05
9119 2 16.355 23.4668 -2.64331 -6.1632 0
54792 4 14.74 3.22617 8.66263 -3.54301 1.46454e-05
50826 2 0.545809 10.1039 -0.118512 -6.39036 0
47581 4 21.6565 8.27382 0.410219 -3.5299 0
30188 4 25.9407 28.7769 19.8888 -3.55741 9.30435e-06
23344 2 20.9062 4.12749 5.89785 -6.68687 3.48983e-05
45187 4 0.807177 12.3257 3.68826 -3.46973 0
25421 1 14.5344 0.442823 8.21907 -5.0808 9.86232e-06
49674 1 25.8486 -2.34363 -0.498409 -5.0898 0
3397 2 20.5807 1.25281 20.3282 -6.5768 1.86209e-05
26308 4 -3.44966 2.0068 -1.55464 -3.26662 0
37006 4 21.9831 18.0076 1.72603 -3.53684 0
50534 2 10.1454 -4.31418 18.5438 -6.70502 9.10227e-06
29560 4 4.56802 7.59505 17.4498 -3.52638 9.59662e-06
31582 2 21.2655 -1.4867 -4.17282 -3.95064 0
54789 2 25.0839 14.5653 17.7941 -6.79556 1.19874e-05
41669 2 2.10662 16.8825 12.6801 -6.41015 2.62567e-06
20949 3 21.6949 19.5818 -5.22733 -2.88917 0
33895 2 5.69196 23.0092 -1.66511 -6.26057 0
60261 2 21.6225 15.2913 13.8853 -6.62608 1.03889e-05
19426 4 25.5278 25.3244 7.61606 -3.49473 1.57037e-06
42757 4 -3.42076 15.4376 -3.59347 -3.39497 0
9560 4 3.2196 27.3038 10.9948 -3.42857 3.54548e-05
2423 4 2.55349 -1.59215 0.141145 -3.40962 0
20001 4 8.72184 -4.59186 -5.0028 -2.60055 0
19401 4 18.5067 24.4896 19.6545 -3.49242 3.63535e-05
6409 1 9.18744 10.7584 18.5578 -5.16723 5.78023e-06
4773 2 19.7334 -0.158841 8.2857 -6.73714 2.42697e-06
41047 4 23.7655 18.8587 -3.42522 -3.15339 0
60610 4 1.58492 27.7694 5.04275 -3.56049 5.39926e-06
31116 4 12.5555 4.66996 9.19233 -3.51119 3.08694e-05
1878 4 12.8536 23.8715 4.3931 -3.4113 0
15313 2 18.2619 27.7329 -4.50619 -4.87099 0
36055 4 24.0629 11.2778 -2.8934 -3.36242 0
59132 4 17.1398 9.51861 -1.24955 -3.49619 0
53833 4 12.2973 24.9721 7.36077 -3.51403 1.11825e-05
12871 2 12.8289 -0.89202 1.49814 -6.53139 0
19380 2 17.9541 0.282618 12.8654 -6.55931 1.6101e-05
37509 4 23.8081 1.95096 -3.99549 -3.02118 0
42850 2 1.74937 27.7135 -2.4578 -6.57257 0
62073 1 -4.71878 11.137 9.82177 -4.84754 1.46582e-06
61188 4 20.3325 28.5551 13.3309 -3.46744 1.87613e-05
59970 2 2.41348 6.65996 10.696 -6.28907 4.25563e-05
57799 4 -1.03216 17.0575 9.09019 -3.49412 8.31451e-06
8145 2 0.211235 5.30181 8.76815 -6.8061 2.25047e-05
34253 4 17.0507 25.1529 -4.56161 -3.0016 0
8403 2 -4.99928 16.2041 -1.63855 -6.33055 0
56711 2 15.0148 -2.16818 17.4265 -6.58253 1.3289e-05
42170 2 0.82521 15.5761 10.3428 -6.42626 7.53499e-06
3903 4 22.9762 24.1507 -0.619702 -3.49989 0
48065 3 20.0768 16.4337 7.8391 -5.15785 1.30326e-05
62166 2 8.12346 -4.55042 12.4028 -6.56802 1.76183e-05
60925 2 7.80334 21.2315 -3.23087 -5.5071 0
6235 2 -1.16694 2.65478 1.95861 -6.56753 0
43312 2 21.1203 26.2308 -0.3633 -6.5915 0
14964 2 26.7204 1.12228 -4.42776 -4.28224 0
32927 2 11.422 3.38423 11.6115 -6.38811 1.67331e-05
25547 4 11.0302 -2.15827 16.4801 -3.57187 1.62099e-05
34126 4 27.8859 22.6423 4.52221 -3.48899 0
42085 4 17.5072 0.431132 15.545 -3.46069 9.8141e-06
41790 2 -2.24895 10.3387 10.9578 -6.4146 1.34277e-05
60197 2 2.24704 27.4168 7.95129 -6.78289 2.9287e-06
53711 2 13.0743 5.35413 15.9586 -6.63147 1.43032e-05
37613 4 15.3102 19.4108 -0.324708 -3.49047 0
28351 2 4.28556 0.772491 14.5382 -6.66083 2.46571e-05
33663 4 16.1878 4.2638 6.48702 -3.55222 2.99351e-05
17019 3 -4.59429 13.2563 -2.50471 -4.82724 0
51647 4 -1.74986 28.7524 18.9604 -3.57463 4.59089e-06
61371 2 18.9953 13.7406 -2.95935 -6.05049 0
43931 2 28.1773 28.5506 5.2776 -6.46081 1.42584e-05
8153 4 21.6317 -4.68532 -1.02726 -3.53159 0
42231 1 28.7448 17.315 4.24846 -4.95594 0
16768 4 6.91364 14.5432 9.71547 -3.45517 5.09451e-06
55539 4 20.1988 1.90141 12.264 -3.50403 9.21581e-06
7726 4 17.6737 -1.37561 17.173 -3.58161 3.19711e-05
20898 2 2.95171 24.4689 11.7169 -6.70437 1.95871e-05
27026 2 -1.32918 16.3983 -5.12037 -3.7256 0
21247 4 7.05377 6.08813 13.4523 -3.55953 2.14017e-05
43058 2 -4.20176 3.9373 17.5612 -6.78313 1.92243e-05
29894 4 -4.06134 -4.04 18.3007 -3.45366 6.41362e-07
44026 2 20.082 17.0852 -3.53603 -5.50877 0
57976 4 6.6353 26.2407 9.25991 -3.52997 5.87865e-06
18495 1 14.0141 17.1442 -3.73557 -4.60247 0
57973 2 9.58928 14.1991 3.66246 -6.45617 0
47175 2 17.6841 17.2873 9.32088 -6.36034 9.16846e-06
28379 4 -4.09192 20.2107 1.47981 -3.49174 0
7237 4 -0.17001 16.4253 16.5194 -3.47764 3.02139e-05
2058 1 25.7241 9.98808 -1.37919 -5.09851 0
6920 4 10.0947 20.4733 4.62857 -3.52426 0
53926 4 9.65094 16.2442 -0.99982 -3.38942 0
9181 4 15.0463 28.5705 6.37866 -3.50152 8.56552e-06
55600 2 12.9195 4.95544 1.43681 -6.45881 0
28145 4 27.1538 28.2369 -2.59242 -3.55033 0
46969 4 22.162 23.0791 16.4209 -3.55695 9.65016e-06
60351 4 -2.24602 2.72932 4.99042 -3.46622 1.47019e-05
17576 2 11.7197 12.4694 -1.89063 -6.34006 0
22092 4 11.2097 0.751339 3.25657 -3.58064 0
39762 2 13.2483 -1.11818 10.1671 -6.34346 3.26979e-05
38769 4 2.0138 5.82967 0.0577912 -3.53576 0
48785 2 -3.90202 4.00688 2.74933 -6.72845 0
19082 2 -2.98663 29.0373 5.13393 -6.48929 3.8264e-06
15489 2 10.9698 8.02858 -3.92261 -5.87753 0
4129 2 2.92895 25.0618 -2.64138 -6.32646 0
21105 2 10.0329 -4.00063 0.49911 -6.34865 0
38576 4 -3.22353 -4.19857 13.561 -3.56664 5.56601e-06
15899 2 15.704 15.1719 -2.62273 -6.24168 0
50084 4 26.1408 24.1315 3.39363 -3.50979 0
44952 4 10.3153 20.5102 -2.18293 -3.44911 0
50537 4 11.5713 17.6393 4.038 -3.45106 0
44156 4 20.3384 13.9996 18.358 -3.48767 1.33921e-05
31612 4 2.60362 11.4976 -1.58022 -3.4477 0
42998 4 3.04576 12.0555 7.40104 -3.48941 1.52264e-05
23285 4 14.7645 19.8605 11.6805 -3.50003 2.11154e-05
34283 2 11.5657 22.2679 6.2544 -6.59935 1.99744e-06
41976 2 4.08492 19.2755 16.9643 -6.37799 1.87792e-06
61888 2 15.2254 -0.0553258 5.66188 -6.35325 4.06546e-06
25773 4 19.6009 24.7053 -4.79845 -2.83174 0
28314 2 10.4216 14.27 -3.75083 -5.20604 0
16760 2 22.7338 3.76957 11.1194 -6.57965 1.15661e-06
40427 3 13.247 1.27371 12.7107 -5.19801 4.34239e-06
52140 4 22.7764 28.1866 -4.3964 -3.1101 0
31206 4 -1.07416 7.34104 14.2869 -3.56291 1.33676e-05
29018 1 25.0629 16.7826 8.22812 -4.93997 1.15391e-06
34729 4 22.7344 13.1702 5.88288 -3.5545 1.3126e-05
59520 2 15.0333 3.89052 -0.673716 -6.74445 0
26305 2 2.63382 -1.12951 3.95173 -6.20786 0
46163 4 14.5424 2.50654 6.33481 -3.54628 1.41385e-05
48613 4 16.927 11.0575 9.17804 -3.53233 7.28026e-07
56069 4 9.62746 1.2654 7.79697 -3.55364 2.7775e-05
19186 4 22.6403 21.5608 -3.44308 -3.29516 0
1763 2 7.84069 20.5587 18.3313 -6.53096 1.54577e-05
36922 2 5.51356 26.7038 6.61876 -6.7426 1.44045e-05
55922 4 8.13146 15.7547 1.79747 -3.5001 0
15103 4 12.9455 -3.92941 16.9926 -3.46495 3.46078e-06
8331 2 17.0788 -0.296527 3.25517 -6.47544 0
19346 2 26.7681 5.8163 -3.99828 -5.19169 0
45503 4 2.88591 22.6573 9.66654 -3.56926 4.29976e-06
43360 3 20.2583 -3.81486 11.9309 -5.05071 4.31038e-06
32796 4 1.51923 16.6207 4.75959 -3.52984 1.67127e-05
56702 2 11.3246 -1.76496 -1.14039 -6.45699 0
6929 4 -4.57159 1.13371 4.95548 -3.51055 8.17833e-06
17433 4 10.7233 -4.92099 11.5388 -3.5246 2.53677e-05
18636 2 25.8027 10.4914 3.15075 -6.48861 0
56145 4 0.624556 25.7113 -4.42144 -2.94483 0
31020 4 4.81995 -0.58577 -0.498525 -3.48163 0
26563 2 15.2152 -1.15853 12.4421 -6.67493 2.35665e-05
41745 4 19.4611 -5.0494 15.6172 -3.47269 6.05699e-06
23156 2 21.4157 11.9136 -2.79123 -5.76701 0
44559 4 -3.13975 -2.81039 6.86878 -3.51796 1.91032e-05
19556 4 -0.00487627 -1.89902 -0.204815 -3.46879 0
35842 4 17.5408 -0.497731 10.2171 -3.49506 2.52467e-05
3773 4 1.35542 -2.18554 -4.61147 -2.90224 0
27868 4 -1.07605 20.6531 10.1763 -3.50087 1.69716e-05
8772 2 12.0572 8.1934 11.9128 -6.60222 4.64469e-06
47914 1 18.6925 10.8489 -3.4432 -4.38077 0
40224 2 15.8658 9.93973 -3.76735 -5.50981 0
40868 3 14.9821 0.929358 -4.86713 -2.96603 0
15634 4 5.79947 -3.62706 13.992 -3.50251 1.2935e-05
19511 1 23.0152 16.3814 16.1354 -5.04404 4.03062e-06
47703 4 15.2461 27.821 3.91653 -3.55757 0
14861 4 0.515346 10.031 2.77193 -3.48293 0
26760 2 19.4044 2.1969 3.57174 -6.64425 0
36302 2 20.9105 -1.9853 -0.836931 -6.5022 0
39699 4 26.3902 17.4449 18.8734 -3.46663 7.31746e-06
32629 4 25.2398 1.94598 6.43106 -3.52856 2.39414e-05
26975 4 20.5686 -2.68767 20.2352 -3.47525 2.28092e-05
57199 2 11.0001 14.3814 15.5172 -6.67601 4.23407e-05
24201 4 3.55315 3.02884 -2.90728 -3.22523 0
55006 2 26.6551 18.766 2.63503 -6.36585 0
2280 2 -2.30325 -0.649567 -0.817404 -6.52559 0
49656 4 15.3544 23.7674 2.12451 -3.49426 0
1516 1 23.6182 15.1609 3.83473 -5.04314 0
56091 2 10.824 18.8408 6.64987 -6.55182 5.81554e-07
21950 4 15.0828 6.27864 17.9014 -3.57927 2.7186e-06
43787 2 -3.5223 8.06409 -0.662874 -6.60038 0
4156 4 -1.59479 13.5157 3.87456 -3.51946 0
34279 4 26.086 -3.29012 2.0668 -3.48501 0
42396 2 11.301 24.5437 14.7952 -6.59917 1.40182e-06
56630 2 11.6797 5.15507 -4.65818 -4.64209 0
1067 2 0.930543 0.793952 -0.0188983 -6.55682 0
22147 3 19.7783 25.327 2.44607 -5.00765 0
36012 4 24.4691 -2.8878 15.9454 -3.55073 5.81722e-06
10 2 21.0495 0.747424 0.983974 -6.52067 0
58990 2 5.82895 9.82128 1.27095 -6.32146 0
6571 4 -2.88319 19.4532 6.31854 -3.51026 8.5614e-06
24701 2 10.4856 22.9101 3.07562 -6.55212 0
32047 2 3.31268 -3.59733 2.08598 -6.4248 0
39550 4 17.82 -2.34726 12.2765 -3.55536 1.95703e-05
281 4 1.97889 0.400361 18.4309 -3.52235 7.4173e-06
20407 4 4.72099 12.6687 5.70141 -3.51639 7.09037e-07
52491 2 -4.18324 23.5603 -2.57217 -6.55377 0
24371 2 20.138 3.07245 -1.3678 -6.44492 0
8108 4 9.62235 5.94712 -2.61833 -3.51688 0
19731 2 14.3311 12.6532 3.09168 -6.27974 0
13038 2 20.8635 20.1463 0.376501 -6.43556 0
6912 4 -1.08634 10.7829 -3.50612 -3.27596 0
33159 2 16.4658 20.5718 -2.9817 -6.04689 0
36471 4 1.90845 8.29545 3.97106 -3.53381 0
36349 4 6.99996 23.3551 18.2838 -3.58873 2.76238e-05
38085 4 26.9858 25.4245 16.3872 -3.4637 3.48728e-06
33120 2 16.0734 4.90495 15.3855 -6.60772 6.50594e-06
59843 4 14.0045 3.59474 10.9278 -3.42529 6.1482e-06
38319 4 12.9944 1.62645 9.91051 -3.52403 2.23718e-05
13660 2 24.7614 0.976861 3.70852 -6.60123 0
684 4 28.0198 3.35625 17.8057 -3.58354 4.05068e-05
57299 2 -4.1216 -3.73375 -3.20821 -5.85072 0
50584 2 -3.33179 20.6291 11.4468 -6.29016 2.4277e-05
55280 4 24.974 -0.754386 16.9405 -3.45932 5.20351e-06
56352 2 23.0746 17.7429 -0.924856 -6.5346 0
13106 4 -1.68526 21.5793 5.66156 -3.488 1.94979e-05
25322 4 14.8434 3.28748 2.26157 -3.44808 0
48905 4 -2.43179 9.99151 6.32984 -3.46467 8.3068e-06
36003 2 27.2649 -1.99181 15.6506 -6.37705 1.32323e-05
32997 4 18.2066 7.01016 -1.68882 -3.35816 0
47276 2 22.3447 7.20653 7.07382 -6.53715 2.27757e-05
5436 2 13.4185 27.4534 -2.91637 -6.13454 0
51372 4 14.9827 19.2488 -4.67359 -3.01032 0
43347 4 8.77382 1.63967 18.8067 -3.52611 2.09679e-05
20492 2 -1.64889 16.6445 3.82838 -6.3859 0
18700 2 2.30849 3.74938 6.68696 -6.46728 1.53062e-05
55296 2 3.02382 25.1729 6.01065 -6.35892 1.42865e-05
21330 3 -0.737059 19.3308 7.84223 -4.98708 1.9707e-06
15836 4 13.7853 7.81538 5.21732 -3.45249 8.48453e-07
33696 4 20.0405 3.44371 1.31761 -3.49181 0
40130 4 -3.85597 -0.469189 15.7934 -3.49358 1.60362e-05
49425 4 15.9941 17.5677 11.5842 -3.58061 1.22265e-05
9245 4 1.48304 -3.62987 10.8222 -3.49174 3.13365e-06
36569 4 9.46094 7.21458 5.36135 -3.49899 8.506e-06
11769 2 3.63925 21.0662 -0.250903 -6.67024 0
49374 4 15.9917 3.12819 -3.13554 -3.31828 0
52996 2 -3.55221 2.59743 -4.88662 -4.12797 0
10567 2 19.134 14.9891 15.9401 -6.48922 9.94886e-06
42304 4 -1.86444 14.7598 1.77405 -3.52649 0
23167 2 11.0057 8.78738 3.52173 -6.49352 0
24120 4 -2.97744 1.18242 3.14566 -3.50763 0
44350 2 -3.37298 19.1628 16.7685 -6.62077 6.61991e-06
36536 4 8.29895 25.9546 7.47585 -3.47431 5.41347e-06
5123 4 14.1535 0.74481 3.3366 -3.53053 0
18689 2 -2.19763 14.1739 11.3659 -6.4534 9.14537e-06
40021 4 20.1606 28.5542 10.9567 -3.49363 2.085e-06
46170 4 -4.79183 2.33984 7.00547 -3.51239 4.73554e-06
1725 4 3.93371 4.06073 1.07503 -3.5119 0
36844 2 1.82624 8.12264 13.6291 -6.50762 2.88868e-05
15511 1 12.1795 -2.34578 18.9034 -5.16404 4.13535e-06
25040 2 -2.36356 16.1286 18.142 -6.60602 3.27775e-05
52961 4 16.2925 9.78593 17.5736 -3.45855 1.17331e-06
2820 4 25.7098 16.7952 16.2828 -3.55195 7.25194e-07
29416 2 -4.20737 24.3985 8.68595 -6.63261 3.00775e-05
16099 1 4.33412 15.6033 13.9301 -5.18021 6.18088e-06
42327 3 23.7128 8.83364 16.2142 -4.90679 7.23193e-06
8389 4 -0.0879707 -3.06304 16.6118 -3.58902 6.42053e-06
58371 2 5.80091 -0.739217 9.34538 -6.59648 7.40549e-06
9588 4 24.8617 -4.27402 -4.40656 -2.94837 0
61201 4 0.277039 3.86041 -0.623237 -3.45418 0
9148 2 15.0803 7.6756 11.3152 -6.2418 3.87484e-06
37962 1 2.70969 13.3398 -3.85331 -4.23057 0
38240 4 19.7164 5.43623 -2.64613 -3.39565 0
23410 1 -1.98084 9.54693 1.46436 -5.07676 0
35663 2 25.1641 10.9536 6.38235 -6.17581 1.49822e-05
26809 2 5.27977 13.6357 -2.65074 -6.56474 0
24650 4 -1.11884 14.2381 15.8978 -3.47707 1.03357e-05
36172 2 25.2384 27.6557 9.02013 -6.40422 8.70214e-06
41006 4 3.50085 22.5357 -3.30142 -3.10161 0
28733 2 24.3862 19.1185 15.8116 -6.73344 1.11327e-05
60929 4 -0.891896 2.77252 -5.07464 -2.66462 0
3937 4 2.57624 14.0357 -1.50483 -3.5225 0
6016 2 10.176 10.823 -4.10076 -4.94969 0
2260 4 11.6476 -4.62015 -1.7371 -3.5575 0
40534 2 8.21927 3.38007 0.454586 -6.44572 0
43999 4 2.71768 -4.50737 -3.79906 -3.18847 0
17417 4 27.0559 14.9588 8.3593 -3.54408 9.55783e-06
55383 2 1.74428 3.85284 11.5624 -6.50264 4.81464e-06
41619 1 6.25194 12.1804 14.8956 -4.97632 6.85005e-06
3097 2 26.6671 24.3163 -5.17912 -4.36292 0
15712 2 12.4333 15.1353 9.57812 -6.65146 4.47836e-05
57769 2 -4.16815 12.1025 12.5481 -6.26495 1.84753e-05
35998 4 12.0375 14.8573 -0.00854438 -3.41607 0
25997 2 -3.75651 26.6344 -4.10745 -4.72912 0
62054 4 -0.201047 25.0709 11.4053 -3.56129 6.34014e-06
41579 2 25.6109 1.78007 18.5621 -6.71279 3.44086e-05
41704 4 10.5679 7.45144 -0.953769 -3.5288 0
62395 3 14.139 14.8083 7.23315 -5.00599 5.89314e-06
23608 4 7.7 8.39257 6.53325 -3.56313 2.08516e-06
40433 2 -1.77655 7.34602 6.4915 -6.77912 2.31411e-05
29530 2 26.6214 7.73772 19.6337 -6.28021 1.28224e-05
30233 2 -0.0587815 12.2267 10.0541 -6.44246 1.34895e-05
16468 2 -4.15632 14.9369 3.08967 -6.55879 0
58657 2 4.68739 -1.06376 6.39331 -6.4772 1.47407e-05
42421 4 7.3725 -1.86908 6.56555 -3.45268 2.76241e-07
26872 4 2.01804 19.3962 7.70589 -3.54074 2.5205e-05
43682 4 12.5634 19.158 -5.0742 -2.80348 0
30612 2 14.0272 20.7484 14.0733 -6.13647 8.58403e-06
19342 2 23.3549 23.3915 7.09012 -6.56031 9.24223e-07
34420 2 -0.112375 1.94126 16.8088 -6.38139 5.72847e-05
27280 4 -2.21676 16.7392 15.3554 -3.43626 3.45844e-06
10765 4 20.9546 22.7038 2.95972 -3.54805 0
4102 4 1.27402 7.87884 1.32632 -3.5347 0
62108 4 6.40784 14.827 15.3247 -3.467 6.55756e-06
28450 4 17.9853 20.154 8.53687 -3.47888 4.73883e-06
11634 2 6.03483 19.2898 10.1203 -6.57721 4.51213e-06
863 2 -1.15349 23.9421 15.9626 -6.57375 9.1784e-06
25262 2 3.95471 10.8159 -3.8196 -4.83637 0
59235 2 19.4573 22.596 16.0378 -6.38117 1.56613e-05
35854 3 24.1857 8.58757 5.25046 -4.99183 3.10821e-06
5786 2 -5.1822 9.41478 25.6033 -6.33874 2.53173e-05
7846 4 3.21383 23.2982 3.92732 -3.46944 0
24652 2 15.7611 1.53203 10.9375 -6.60302 2.56133e-05
23341 2 11.998 -3.72285 2.69614 -6.43355 0
31220 2 25.1173 -0.736883 14.0492 -6.46649 1.99661e-05
36236 2 2.85275 11.9483 10.2027 -6.66031 4.38794e-06
13219 2 -4.59168 -3.09168 11.4423 -6.62437 1.68008e-05
8626 4 16.4886 -1.70033 14.853 -3.48513 6.43855e-06
35330 4 20.9458 25.6069 19.6351 -3.50282 9.51453e-06
9724 4 26.1491 7.79605 2.84443 -3.52814 0
5003 4 22.7217 15.742 9.0697 -3.56608 2.56491e-05
58981 4 27.9575 25.583 -2.9319 -3.41993 0
15996 2 20.1287 16.819 -0.398874 -6.35321 0
38551 4 28.22 23.5427 9.85286 -3.45353 1.29562e-05
47709 2 9.88631 21.8015 16.2318 -6.54694 2.91714e-05
61935 4 24.7862 -0.468549 -2.31852 -3.41633 0
22535 2 17.8194 20.1018 11.1789 -6.71198 1.17866e-05
33756 4 8.61078 14.5112 6.03641 -3.45633 1.80585e-06
34795 4 15.679 27.2821 -4.46751 -3.03132 0
40663 1 6.32358 5.29699 0.711932 -5.18301 0
10901 4 8.82258 17.7724 18.7772 -3.46889 1.20696e-05
52021 2 4.29095 14.0975 16.5807 -6.63015 4.99691e-06
23671 2 18.9842 15.3846 2.12847 -6.28233 0
60674 2 1.78822 14.1083 14.6751 -6.35742 1.93271e-05
37652 4 8.24009 -2.16744 -4.43129 -3.0839 0
62136 4 -2.89703 1.82415 16.2082 -3.52003 7.13423e-06
37879 1 -4.07762 20.7388 -3.04641 -4.87407 0
47586 2 22.6195 5.97301 4.34111 -6.45012 0
55522 2 0.972489 6.34852 5.70776 -6.64075 1.28582e-05
10735 3 5.0154 -1.12747 12.4645 -5.06085 2.81177e-06
18772 2 10.3487 6.01371 10.5425 -6.42548 1.91957e-06
49863 4 25.3752 -5.12345 8.77136 -3.51181 1.78816e-05
12573 2 18.0657 21.7571 18.6302 -6.60745 4.99567e-05
30678 4 9.19546 6.15414 18.092 -3.55368 1.02379e-05
35960 4 8.86781 20.8364 13.5728 -3.52457 5.63985e-07
31767 2 20.8153 26.3989 9.30078 -6.42079 3.41987e-06
18841 1 2.64254 28.5823 17.6025 -5.10905 5.01103e-06
11145 4 18.8169 22.8818 11.6066 -3.57383 4.13561e-06
8388 4 25.9265 21.2349 17.2493 -3.53551 1.32537e-05
23567 2 -1.19391 27.6081 -3.10031 -5.76277 0
26787 2 6.38699 15.1363 4.17491 -6.63217 0
10941 2 12.7518 7.44991 8.95346 -6.59273 5.2793e-06
59937 2 8.43232 25.645 3.17208 -6.60957 0
38773 4 2.26247 7.7937 -1.13606 -3.46084 0
37463 2 3.69492 1.00192 1.39625 -6.6197 0
52849 1 13.8475 23.5446 13.8727 -5.1682 3.30996e-06
23508 2 28.0535 27.1109 8.1867 -6.57434 1.27795e-06
54413 2 4.29385 16.0884 -0.372268 -6.59669 0
9456 2 24.8856 1.88412 -1.23805 -6.51806 0
48942 1 8.53734 -3.9499 2.88706 -5.01663 0
36494 2 -2.10743 11.6291 16.1725 -6.2693 3.04867e-05
37327 2 10.6214 0.496517 10.5259 -6.55953 4.94202e-06
44261 2 25.0665 23.868 -2.29131 -6.64762 0
29660 4 21.0841 -2.79307 8.38122 -3.44391 2.1038e-05
51806 2 23.3621 -3.64691 1.04328 -6.76669 0
15565 2 4.60043 18.6844 13.9512 -6.64499 4.26904e-05
57634 2 6.93626 11.044 -4.44944 -4.46317 0
7076 4 4.08514 25.3516 1.84024 -3.40444 0
3486 4 19.3344 26.7417 14.6497 -3.52877 4.97347e-06
2372 2 21.649 20.4034 15.5106 -6.44441 6.17127e-06
6974 2 -2.28303 8.61796 16.6994 -6.44125 1.90823e-05
7934 2 5.82325 -4.08282 -3.45142 -5.2887 0
21511 4 6.52959 -3.38839 8.23601 -3.41667 3.83978e-05
1795 4 22.3475 24.5286 1.72528 -3.51292 0
7911 4 20.9824 21.2832 18.1223 -3.51105 6.4187e-07
58399 3 -2.86128 7.65291 12.046 -5.15218 8.16308e-06
10138 2 8.7969 8.80585 0.967455 -6.5834 0
28056 2 26.6027 14.4455 15.0409 -6.54187 2.27622e-05
58613 4 13.1197 5.76259 11.3075 -3.4962 8.48232e-06
44965 2 23.9223 6.20331 9.55007 -6.62552 1.35815e-05
8545 4 14.5224 5.01653 -3.23456 -3.33095 0
41523 2 19.2208 25.8721 17.2812 -6.61505 1.78847e-05
37894 2 27.2024 3.59453 3.25482 -6.793 0
33504 2 10.2383 3.32056 -2.12872 -6.33806 0
54083 2 11.8317 27.3992 -0.504807 -6.26651 0
12159 2 25.7433 0.583403 8.83708 -6.52432 2.24301e-05
37163 1 27.0068 3.88049 6.29972 -5.04491 1.11451e-07
41909 2 28.5888 5.44801 10.5503 -6.51392 2.78736e-05
56534 2 16.5791 21.2866 6.41553 -6.60667 1.59782e-05
13235 4 17.0589 11.9851 4.29115 -3.44915 0
14755 2 27.9675 22.1294 7.27794 -6.81897 3.35869e-05
29268 4 25.8548 23.0987 5.81425 -3.52159 2.91351e-05
6919 2 21.1013 22.6424 13.4287 -6.78521 2.1858e-06
34748 4 9.14455 4.65534 13.3335 -3.47387 9.18086e-06
41759 2 17.6275 27.5472 12.7881 -6.61859 5.18216e-06
2277 2 5.56769 23.7833 13.381 -6.65482 2.57631e-05
60132 4 16.4565 12.2316 -1.85038 -3.50713 0
5276 4 -0.910495 9.80452 8.29493 -3.57261 7.66118e-06
50212 2 26.8479 -1.18808 18.7651 -6.43432 9.81288e-06
54396 2 5.14622 19.2414 7.26951 -6.62377 1.08996e-05
53471 2 24.1957 6.02112 16.475 -6.2977 2.05607e-05
13802 1 -0.95877 26.0908 1.98405 -4.89016 0
41954 4 10.1288 16.2286 5.48531 -3.42789 9.31759e-06
42361 4 -2.84016 5.75555 8.31008 -3.49168 7.5848e-06
57885 2 18.9976 2.72851 14.8071 -6.65059 1.2483e-06
60600 1 13.4947 25.0048 18.1646 -5.12225 1.97451e-06
33651 2 16.1715 -4.27429 11.1415 -6.38116 1.68806e-05
49622 2 -4.75684 20.93 4.87802 -6.50377 1.84568e-05
53411 2 8.6554 -3.75478 -2.1129 -6.72714 0
24338 2 5.50448 24.6287 16.2915 -6.45711 1.22639e-05
7862 2 28.3079 11.6782 15.0187 -6.91503 6.09479e-06
41126 4 6.85845 16.8338 13.8655 -3.56012 9.96411e-06
14111 2 19.3328 22.0473 -2.69272 -6.23718 0
17286 4 9.18739 6.45054 -5.01894 -2.92665 0
51266 2 9.03939 23.1625 -1.19678 -6.33133 0
17836 4 7.57205 -2.60881 1.04803 -3.39931 0
32660 4 20.8295 26.7442 -3.68104 -3.33708 0
2697 2 1.50524 2.09053 14.0991 -6.58102 1.12125e-05
44437 4 28.4286 -2.74161 5.52863 -3.57004 3.32809e-06
51934 2 15.481 2.02446 20.4846 -6.82857 1.96996e-06
13786 2 18.0098 6.7624 10.8144 -6.67993 1.25446e-05
30243 2 7.15415 4.56646 11.188 -6.32852 2.60311e-05
23763 2 17.923 12.8293 13.8864 -6.51078 1.24815e-05
19269 2 24.1804 20.154 1.88437 -6.54724 0
22024 4 7.91526 15.2198 -2.251 -3.42357 0
55641 2 12.2501 -1.58278 4.62623 -6.45079 0
36071 2 23.0115 26.4567 7.21325 -6.45495 1.5537e-05
14778 2 1.54882 25.7821 0.277474 -6.69432 0
38474 1 3.78686 5.76261 5.33078 -5.03923 2.09714e-06
21830 2 8.18087 13.15 19.9784 -6.35653 8.95146e-06
299 4 -1.68953 -3.46195 -1.13291 -3.45823 0
61335 2 0.256091 14.8996 -0.100131 -6.45383 0
54574 4 5.39115 16.9503 16.0714 -3.57381 7.51015e-06
57412 4 22.0475 8.694 9.42437 -3.5826 1.7722e-05
10486 2 4.28477 16.4762 6.27252 -6.41113 7.29014e-06
19102 4 20.8229 10.0369 2.64125 -3.52077 0
50928 4 13.1655 12.8778 11.089 -3.55563 1.07726e-06
34562 2 20.2686 -0.970781 11.2402 -6.57122 9.12462e-06
23569 4 3.13367 27.7417 1.92702 -3.51011 0
10463 1 25.5069 24.4293 20.2622 -5.14274 6.62523e-06
21096 2 1.15644 2.08342 8.99835 -6.739 1.95997e-06
37553 4 14.2113 26.25 8.21715 -3.5194 1.08602e-05
30220 4 13.3009 7.44967 2.81186 -3.49553 0
18833 2 5.46007 2.54246 -0.728809 -6.69748 0
35391 4 22.4505 27.3191 11.3483 -3.49493 2.38188e-05
5783 4 -0.712791 3.40688 13.051 -3.47762 3.69732e-06
21113 4 11.4766 21.8335 13.9879 -3.54855 2.05754e-06
40136 4 24.6081 25.1062 5.23766 -3.55236 2.59307e-05
5307 2 11.051 -2.90075 -4.16807 -5.1395 0
31195 4 4.39222 27.7093 -3.1433 -3.48622 0
13146 4 15.5031 -3.54722 -3.75714 -2.96421 0
1495 2 7.50133 21.8677 11.1397 -6.77508 1.04847e-05
56080 2 5.39877 -3.36142 -0.384417 -6.52947 0
511 4 19.0695 27.843 -1.3733 -3.4914 0
44130 2 16.8858 12.7229 -4.81581 -3.70676 0
21695 4 -0.201725 9.77085 15.0454 -3.51076 7.27074e-06
44647 2 7.06463 1.06381 6.6638 -6.75851 9.43807e-06
55561 4 6.05905 11.024 -1.60245 -3.448 0
61847 2 13.0707 22.4593 16.3197 -6.46352 8.41685e-06
39169 2 -1.10116 -3.39757 11.845 -6.82847 2.33687e-06
4103 4 12.2259 23.5035 -4.67266 -3.03405 0
22150 2 26.8535 1.20306 1.07782 -6.58143 0
37831 4 12.0388 11.8025 0.749085 -3.37887 0
59985 4 28.9064 -0.255198 5.59199 -3.52399 9.61384e-06
11501 1 -5.08511 12.8835 4.707 -5.02547 0
39607 4 -4.73922 10.2703 0.241265 -3.51792 0
56986 4 16.8011 19.3867 1.82631 -3.42926 0
52685 4 24.6489 3.77431 4.3728 -3.58619 0
50146 2 -2.96883 21.4606 8.23435 -6.57734 1.69853e-05
25531 4 10.1657 22.5092 -3.70378 -3.08814 0
52432 4 8.89752 -0.972603 -0.766089 -3.49152 0
28304 4 2.62532 22.484 13.81 -3.5325 1.84988e-05
55451 2 1.04145 26.2453 16.0771 -6.72013 3.72927e-06
61998 2 28.3714 22.3556 12.57 -6.73351 1.02499e-05
38569 1 18.449 -0.00820986 5.63518 -5.16611 1.40635e-06
12285 2 1.44243 26.6785 13.0388 -6.3293 4.28599e-06
57160 4 -1.98348 20.9537 15.0533 -3.59499 4.3664e-05
2907 2 19.9341 25.6917 12.1324 -6.82173 1.13226e-05
52167 4 10.8696 17.5417 9.10258 -3.53003 1.83324e-05
37725 2 9.69554 -1.33921 2.03803 -6.6035 0
20763 4 13.6912 -2.18331 -4.97528 -2.62187 0
31406 2 3.07611 0.0923901 -4.62553 -4.10973 0
14977 4 23.0328 16.5189 -3.7331 -3.10762 0
41524 2 8.80367 17.8091 3.62205 -6.48999 0
9174 4 0.374235 19.4314 19.7034 -3.5309 1.01482e-05
20297 2 -2.19887 6.23917 18.4539 -6.34612 8.79928e-06
53627 2 24.8982 10.208 18.6603 -6.75198 5.77972e-05
21429 4 5.36462 21.7181 17.364 -3.47652 3.17974e-05
12582 2 7.07899 20.9256 -0.228509 -6.31271 0
28753 1 3.38123 18.4889 0.988443 -4.96694 0
32529 3 22.1211 0.337362 3.70076 -5.00891 0
33340 4 -3.39843 16.0955 13.1713 -3.52961 6.82476e-06
9355 4 3.5106 3.94616 15.1248 -3.47912 1.17468e-05
33813 4 22.3564 17.961 14.1424 -3.54394 8.37975e-06
8718 1 14.2231 -1.1265 -0.71222 -5.12835 0
25528 4 6.6473 27.0742 16.1811 -3.53958 1.47004e-05
6305 4 25.6 -4.13353 11.1918 -3.54741 2.48835e-06
14339 4 -2.16105 5.26865 13.0939 -3.35472 1.14397e-05
25843 4 -3.91993 28.4606 18.1077 -3.50137 2.23477e-05
57182 4 -2.79616 12.1371 5.46945 -3.44083 8.82193e-06
46784 2 -0.510951 15.5761 13.5451 -6.37091 1.23587e-05
32144 4 15.2875 16.1785 9.54174 -3.53429 9.89609e-06
3057 2 6.52948 3.36327 14.1071 -6.85248 3.80094e-05
43037 2 25.4355 4.83104 19.0207 -6.78805 8.81285e-07
41498 3 17.3374 7.29232 16.7838 -4.9804 2.51754e-06
26133 4 14.1852 -3.86201 9.35276 -3.54672 2.40999e-05
38983 3 10.8937 19.4834 2.18411 -5.05007 0
19634 2 5.19792 6.57746 9.8988 -6.39484 1.39631e-05
6507 2 -4.80722 24.5262 3.58492 -6.61025 0
54136 2 13.6908 5.41106 6.66523 -6.67842 7.76077e-06
46476 2 -3.4125 14.7052 6.12673 -6.55441 1.03443e-05
8270 4 7.61905 11.3476 0.116252 -3.38809 0
1475 2 -4.1069 13.8274 17.0346 -6.45306 3.67049e-06